/*--------------------------------*- C++ -*----------------------------------*\
| =========                 |                                                 |
| \\      /  F ield         | foam-extend: Open Source CFD                    |
|  \\    /   O peration     | Version:     4.0                                |
|   \\  /    A nd           | Web:         http://www.foam-extend.org         |
|    \\/     M anipulation  |                                                 |
\*---------------------------------------------------------------------------*/
FoamFile
{
    version     2.0;
    format      ascii;
    class       volScalarField;
    object      epsilon;
}
// * * * * * * * * * * * * * * * * * * * * * * * * * * * * * * * * * * * * * //

dimensions      [0 2 -3 0 0 0 0];

internalField   uniform 0.938771;

boundaryField
{
    outlet
    {
        type            zeroGradient;
    }
    rod
    {
        type            epsilonWallFunction;
        value           uniform 0.938771;
        refValue        uniform 0;
        Cmu             0.09;
        kappa           0.41;
        E               9.8;
    }
    tube
    {
        type            epsilonWallFunction;
        value           uniform 0.938771;
        refValue        uniform 0;
        Cmu             0.09;
        kappa           0.41;
        E               9.8;
    }
    inlet
    {
        type            fixedValue;        
        value           nonuniform List<scalar>

720
(
0.60134
0.597411
0.592937
0.587507
0.584911
0.579095
0.581781
0.583016
0.583458
0.587171
0.590588
0.595298
0.74303
0.735271
0.730746
0.722157
0.719145
0.713237
0.713403
0.718113
0.722369
0.730088
0.736965
0.743514
0.950441
0.939236
0.929234
0.91773
0.91322
0.905926
0.90757
0.915531
0.924301
0.936991
0.947096
0.958981
1.23709
1.21497
1.19815
1.18098
1.17183
1.16519
1.169
1.18517
1.20314
1.23036
1.25204
1.27256
1.75001
1.71339
1.68356
1.65541
1.63509
1.62553
1.62293
1.64075
1.66609
1.71376
1.75119
1.79517
2.56415
2.48424
2.41324
2.34667
2.30682
2.28547
2.30084
2.35926
2.44427
2.57125
2.66478
2.7555
4.95651
4.89657
4.81082
4.72979
4.63408
4.56783
4.51654
4.52133
4.59405
4.74137
4.86373
5.00466
13.7966
13.9906
13.984
14.072
13.9444
13.836
13.5833
13.1993
12.8115
12.4872
12.4238
12.5765
0.598975
0.600819
0.601349
0.5987
0.596808
0.590594
0.592781
0.592074
0.587923
0.585875
0.583362
0.582863
0.748279
0.748497
0.749156
0.742622
0.739852
0.730892
0.725881
0.724068
0.720511
0.718457
0.718454
0.71999
0.964545
0.966396
0.964982
0.954813
0.948633
0.934522
0.926468
0.920841
0.917164
0.914913
0.914813
0.918845
1.281
1.27958
1.27224
1.25293
1.23685
1.213
1.19382
1.18161
1.17231
1.17179
1.17658
1.18899
1.81249
1.81801
1.80769
1.78057
1.7514
1.71723
1.68105
1.65154
1.63178
1.62966
1.63247
1.6507
2.76919
2.763
2.71443
2.64343
2.57774
2.49048
2.4181
2.3505
2.29197
2.28718
2.29939
2.37157
5.042
5.0938
5.06185
5.03917
4.99095
4.92103
4.85518
4.73526
4.6036
4.53192
4.48384
4.54043
12.8278
13.2027
13.4024
13.7416
13.8581
14.0488
14.1136
14.0685
13.9899
13.7605
13.4764
13.0964
0.584039
0.58574
0.588769
0.590136
0.593539
0.593763
0.600533
0.603062
0.601653
0.599975
0.595607
0.591344
0.724699
0.728049
0.73515
0.737183
0.743135
0.742663
0.744493
0.745288
0.742257
0.737175
0.731741
0.725324
0.92514
0.932728
0.943923
0.949721
0.959932
0.960042
0.961836
0.959121
0.952738
0.943517
0.932312
0.923394
1.20703
1.22599
1.24937
1.26235
1.27685
1.27401
1.27003
1.25674
1.23713
1.21725
1.19879
1.18367
1.6746
1.70843
1.74939
1.77965
1.80873
1.8134
1.80842
1.78294
1.74885
1.71547
1.68217
1.65739
2.45352
2.56774
2.66572
2.73007
2.7754
2.75148
2.72365
2.65825
2.56567
2.48944
2.40386
2.34787
4.6082
4.75821
4.86932
4.99836
5.06574
5.08756
5.10741
5.04917
4.97675
4.89746
4.79282
4.70931
12.7433
12.5268
12.4477
12.6988
12.8792
13.2585
13.5262
13.6774
13.8801
13.9458
14.0191
13.9932
0.587044
0.583371
0.581116
0.57909
0.580806
0.580925
0.588302
0.593888
0.598321
0.602935
0.604116
0.604025
0.721837
0.717021
0.717406
0.715585
0.719889
0.723097
0.731428
0.740964
0.74703
0.751217
0.750924
0.747362
0.916263
0.911779
0.912008
0.911716
0.919435
0.925922
0.939505
0.955458
0.965708
0.971851
0.96768
0.961709
1.17604
1.17091
1.17625
1.18317
1.20065
1.2189
1.24544
1.2696
1.28125
1.28462
1.27341
1.2568
1.64085
1.63048
1.63421
1.64236
1.66671
1.69959
1.74363
1.78686
1.81254
1.8249
1.80764
1.7842
2.30319
2.29081
2.3127
2.36282
2.45493
2.55132
2.66735
2.74851
2.77496
2.7716
2.71089
2.64823
4.60676
4.55354
4.5147
4.54842
4.62699
4.7423
4.89364
4.9949
5.06249
5.08906
5.05667
5.02759
13.8935
13.7461
13.4412
13.1843
12.8128
12.6468
12.5678
12.608
12.8847
13.1266
13.4139
13.6534
0.495835
0.492913
0.490856
0.486044
0.484864
0.477689
0.475848
0.479355
0.481701
0.484608
0.487725
0.490654
0.493321
0.493823
0.494776
0.491471
0.491501
0.484544
0.483646
0.485691
0.485492
0.484441
0.48388
0.483341
0.484675
0.484942
0.487368
0.486387
0.489372
0.485873
0.488384
0.493346
0.494743
0.494363
0.492418
0.489295
0.487274
0.484412
0.483833
0.481052
0.482484
0.478557
0.480147
0.486825
0.491223
0.495237
0.496942
0.496984
0.331535
0.320047
0.310452
0.303922
0.299077
0.297097
0.296749
0.299469
0.303868
0.311322
0.321638
0.333264
0.320805
0.305299
0.293272
0.284884
0.279038
0.27662
0.276454
0.279575
0.285288
0.294205
0.306646
0.322267
0.311048
0.29344
0.279676
0.270145
0.263701
0.260849
0.260745
0.264145
0.270503
0.280606
0.294678
0.312614
0.304156
0.285003
0.269975
0.259559
0.252592
0.249452
0.24948
0.253153
0.26017
0.271061
0.286151
0.305776
0.300192
0.279695
0.263968
0.252827
0.24554
0.242112
0.242145
0.245867
0.253129
0.264437
0.279977
0.300383
0.297818
0.276923
0.260902
0.249439
0.242046
0.238496
0.238603
0.242397
0.249873
0.261351
0.277171
0.297789
0.298357
0.277358
0.261302
0.249682
0.242248
0.23859
0.238698
0.242395
0.249827
0.261081
0.276705
0.296902
0.300258
0.279863
0.264315
0.252993
0.245836
0.242301
0.242543
0.246179
0.253538
0.264443
0.279646
0.299206
0.304877
0.285653
0.270787
0.260035
0.253209
0.249802
0.250135
0.253577
0.260683
0.270869
0.285334
0.303406
0.310957
0.293744
0.280123
0.270323
0.264281
0.261277
0.26186
0.26512
0.271775
0.281119
0.29431
0.310802
0.32004
0.305342
0.293505
0.285054
0.279807
0.277241
0.277996
0.2809
0.287027
0.295254
0.306773
0.321086
0.330832
0.32018
0.310502
0.303725
0.300006
0.298078
0.299173
0.301688
0.306849
0.313227
0.322368
0.332668
0.351009
0.3438
0.336348
0.331755
0.329181
0.32799
0.329114
0.331096
0.335488
0.340264
0.34755
0.355868
0.381857
0.37734
0.372565
0.369974
0.368978
0.368731
0.369981
0.371375
0.374063
0.376791
0.380944
0.386105
0.419285
0.421435
0.420687
0.421656
0.422049
0.422661
0.423064
0.423037
0.423132
0.421909
0.42212
0.420497
0.352293
0.344185
0.336
0.33066
0.327497
0.32598
0.327064
0.329415
0.33436
0.339936
0.348033
0.357067
0.382671
0.376647
0.370929
0.367233
0.365438
0.365054
0.366762
0.369092
0.373157
0.377335
0.383039
0.388849
0.418601
0.418608
0.416925
0.416783
0.41672
0.417855
0.419272
0.420739
0.422759
0.423247
0.425455
0.42457
0.353996
0.345504
0.337255
0.331677
0.328086
0.325836
0.326082
0.327578
0.331816
0.337075
0.345047
0.354629
0.385339
0.379088
0.373283
0.368866
0.366076
0.364372
0.36456
0.365773
0.369205
0.373516
0.37952
0.386312
0.422764
0.422071
0.419978
0.418285
0.41688
0.416284
0.416053
0.416422
0.418044
0.41915
0.422364
0.423024
0.352791
0.34522
0.337631
0.332692
0.329612
0.327654
0.32794
0.329106
0.332839
0.337325
0.344484
0.353324
0.384734
0.380005
0.374998
0.37145
0.369322
0.367748
0.367582
0.367993
0.370135
0.372974
0.377377
0.383431
0.423732
0.425213
0.423876
0.422845
0.421653
0.420561
0.419616
0.418812
0.418694
0.418
0.419019
0.418779
);
    }
}


// ************************************************************************* //
