/*--------------------------------*- C++ -*----------------------------------*\
| =========                 |                                                 |
| \\      /  F ield         | foam-extend: Open Source CFD                    |
|  \\    /   O peration     | Version:     4.0                                |
|   \\  /    A nd           | Web:         http://www.foam-extend.org         |
|    \\/     M anipulation  |                                                 |
\*---------------------------------------------------------------------------*/
FoamFile
{
    version     2.0;
    format      ascii;
    class       volScalarField;
    location    "0";
    object      k;
}
// * * * * * * * * * * * * * * * * * * * * * * * * * * * * * * * * * * * * * //

dimensions      [0 2 -2 0 0 0 0];

internalField   uniform 0.0268318;

boundaryField
{
    outlet
    {
        type            zeroGradient;
    }
    rod
    {
        type            kqRWallFunction;
        value           uniform 0.0268318;
    }
    tube
    {
        type            kqRWallFunction;
        value           uniform 0.0268318;
    }
    inlet
    {
        type            fixedValue;        
        value           nonuniform List<scalar>

720
(
0.030236
0.0302021
0.0301431
0.0300636
0.0300231
0.0298991
0.0299153
0.029876
0.0298403
0.0298534
0.0298869
0.0299618
0.0323176
0.0322343
0.0321985
0.0320765
0.0320321
0.0319085
0.0318382
0.0318339
0.0318439
0.031905
0.0319933
0.0320933
0.0347725
0.0346765
0.0345889
0.0344603
0.0344122
0.0342919
0.0342336
0.0342416
0.0342816
0.0343616
0.034461
0.0346031
0.0372454
0.0370674
0.0369495
0.0368016
0.0367128
0.0366167
0.0365399
0.0365911
0.0366878
0.0368762
0.0370821
0.0372871
0.0404603
0.0402508
0.0401201
0.0399886
0.0398719
0.039836
0.0396901
0.0396733
0.0397274
0.0399176
0.0401388
0.0404241
0.0429278
0.0424827
0.0421535
0.0418587
0.0416938
0.0416717
0.0416409
0.0418443
0.0422257
0.0428168
0.0433382
0.0438307
0.0479889
0.0480154
0.0480026
0.0480231
0.0478057
0.0477696
0.0472975
0.0469282
0.0467525
0.0467799
0.0469612
0.0472764
0.0483297
0.0487581
0.0487247
0.0489036
0.0485811
0.0483004
0.0476795
0.0467555
0.0458443
0.0451212
0.0450382
0.045472
0.0300422
0.0301126
0.0301646
0.0301728
0.0301852
0.0301132
0.0301724
0.0301497
0.0300612
0.0299871
0.0298947
0.0298379
0.0322029
0.0322549
0.0323317
0.0322951
0.0323132
0.0322164
0.0321324
0.0320899
0.0320148
0.0319304
0.0318772
0.0318418
0.0347157
0.0347991
0.0348617
0.0348105
0.0348044
0.0346778
0.0345726
0.0344871
0.0344293
0.0343438
0.0342828
0.0342635
0.0374412
0.0374898
0.0375151
0.0374022
0.0373098
0.0371244
0.0368993
0.0367587
0.0366501
0.0365851
0.0365792
0.0366221
0.0406326
0.0407472
0.0407923
0.0406901
0.0405416
0.0403927
0.0400934
0.0398709
0.0397629
0.0397235
0.0397142
0.039737
0.0440341
0.0440346
0.0438407
0.0434574
0.0430902
0.0426584
0.042159
0.0417571
0.0414586
0.0414403
0.0415456
0.0418999
0.0476377
0.0479291
0.0480555
0.0481979
0.0482029
0.0483096
0.048191
0.0478772
0.047516
0.0472217
0.0470363
0.0469447
0.0460895
0.0469804
0.0474371
0.0482161
0.048473
0.0488958
0.0490239
0.0489021
0.0486885
0.0481217
0.0474241
0.0465113
0.0298141
0.0298203
0.029858
0.0298967
0.0299814
0.030031
0.0301829
0.0302496
0.030263
0.0302562
0.030186
0.0301067
0.0318676
0.0318879
0.0319896
0.0320385
0.0321626
0.0322108
0.032263
0.032313
0.0323168
0.032264
0.0321927
0.0320851
0.0342802
0.0343302
0.0344483
0.0345407
0.0346976
0.0347719
0.0348221
0.0348384
0.0348209
0.0347386
0.0346101
0.0344961
0.03675
0.0368869
0.0371107
0.0372663
0.0374444
0.0374968
0.0374685
0.0373837
0.0372432
0.0370761
0.0369144
0.0367637
0.0398169
0.0399501
0.0401906
0.040424
0.040655
0.0408072
0.0407712
0.0406144
0.0404246
0.0402321
0.0400517
0.0399173
0.0423539
0.0429104
0.0434644
0.0438437
0.0441165
0.0440889
0.0438212
0.0434338
0.0428792
0.0424493
0.0419967
0.0417276
0.046914
0.0469724
0.0471526
0.047503
0.0477805
0.0480861
0.0481397
0.0480804
0.0480071
0.0478954
0.0478059
0.0477084
0.0456858
0.0452269
0.0450965
0.0457594
0.0462124
0.0471108
0.0477293
0.0480693
0.0485254
0.0486599
0.0488052
0.0487225
0.0300088
0.0299262
0.0298568
0.0298008
0.0298123
0.0297919
0.0298948
0.0299633
0.0300531
0.0301507
0.0302093
0.030248
0.0320108
0.0319065
0.0318815
0.0318169
0.0318485
0.0318661
0.0319429
0.0320654
0.0321834
0.0322824
0.0323366
0.0323331
0.0343839
0.0343005
0.0342657
0.0342172
0.034259
0.0343005
0.0343987
0.0345677
0.0347254
0.0348494
0.0348684
0.0348611
0.0366838
0.0366058
0.0366235
0.0366406
0.0367413
0.0368726
0.0370359
0.0372515
0.0374067
0.0375005
0.037478
0.0373766
0.0398475
0.039779
0.0397774
0.0397743
0.0398195
0.0399691
0.0401146
0.0403568
0.0405715
0.0407328
0.0407196
0.0406268
0.0415748
0.0415703
0.0417365
0.0420251
0.0424457
0.0429518
0.0433786
0.0437855
0.0439386
0.0439815
0.0437044
0.0433618
0.047601
0.0474817
0.0472943
0.0472356
0.0470671
0.0471379
0.0471398
0.0472961
0.0475155
0.0477315
0.0478726
0.0479497
0.0484631
0.0480852
0.0473444
0.0467249
0.0458547
0.0455112
0.045384
0.0455427
0.0462286
0.0468008
0.0474665
0.0480105
0.0283705
0.0283425
0.0283231
0.0282427
0.0282268
0.0280638
0.0280009
0.0280363
0.0280608
0.0280777
0.0281165
0.028162
0.0282188
0.028251
0.0282989
0.0282695
0.0283077
0.0281906
0.0281861
0.0282242
0.0282241
0.0281779
0.0281395
0.0280943
0.0280898
0.0280748
0.0281118
0.028097
0.0281756
0.0281225
0.0281931
0.0283059
0.0283654
0.0283726
0.0283464
0.0282848
0.0282377
0.0281726
0.0281472
0.0280778
0.0280948
0.0279882
0.0279965
0.0281088
0.0282022
0.0282841
0.0283398
0.0283664
0.02483
0.0245396
0.0243051
0.0241398
0.0240254
0.0239797
0.0239769
0.024054
0.0241659
0.0243591
0.0246123
0.0248941
0.0245708
0.0241758
0.0238701
0.0236492
0.0234999
0.0234397
0.0234388
0.0235254
0.0236755
0.0239074
0.0242215
0.0246078
0.0243336
0.0238771
0.0235144
0.0232555
0.0230824
0.023006
0.0230052
0.0231011
0.0232728
0.0235434
0.0239102
0.0243639
0.0241594
0.0236593
0.0232545
0.0229663
0.0227718
0.0226842
0.0226858
0.0227904
0.0229846
0.0232806
0.0236804
0.0241834
0.0240665
0.0235246
0.0230948
0.0227811
0.0225726
0.0224736
0.0224747
0.0225822
0.0227875
0.0231013
0.0235199
0.0240495
0.0240087
0.0234547
0.0230132
0.0226877
0.0224738
0.0223698
0.0223731
0.0224837
0.0226981
0.0230196
0.0234495
0.0239858
0.0240284
0.0234721
0.0230291
0.0226987
0.0224829
0.0223751
0.0223784
0.0224867
0.0227013
0.0230182
0.0234445
0.023971
0.0240831
0.023544
0.0231171
0.0227962
0.0225897
0.0224859
0.0224933
0.0226001
0.0228123
0.0231193
0.0235327
0.024043
0.0242008
0.0236993
0.0232966
0.0229965
0.0228025
0.0227035
0.0227135
0.0228134
0.0230161
0.0233005
0.0236909
0.0241589
0.0243597
0.0239161
0.0235518
0.023281
0.0231129
0.0230269
0.0230443
0.0231382
0.0233239
0.0235833
0.0239343
0.0243619
0.0245828
0.0242104
0.023902
0.0236739
0.0235322
0.0234617
0.0234842
0.0235668
0.0237339
0.0239594
0.0242589
0.0246268
0.0248516
0.0245822
0.0243345
0.0241519
0.0240565
0.0240052
0.0240377
0.0241107
0.0242477
0.0244217
0.0246542
0.0249194
0.0253226
0.0251431
0.0249606
0.0248407
0.0247798
0.0247532
0.0247873
0.0248483
0.0249631
0.0250952
0.0252734
0.0254804
0.0260209
0.0258998
0.0257868
0.0257171
0.0257004
0.0257035
0.0257457
0.0257975
0.0258695
0.0259523
0.0260458
0.0261735
0.0268079
0.0268364
0.0268152
0.0268294
0.0268479
0.0268791
0.0269075
0.0269341
0.0269493
0.0269416
0.0269429
0.0269058
0.0253875
0.0251872
0.0249824
0.0248364
0.0247481
0.0246975
0.0247144
0.0247707
0.0248888
0.0250352
0.0252332
0.0254642
0.0260923
0.0259344
0.0257912
0.025681
0.0256235
0.0255994
0.0256305
0.0256886
0.025785
0.0259019
0.0260399
0.0261986
0.0268627
0.026841
0.0267869
0.026753
0.0267279
0.0267371
0.0267589
0.0268018
0.0268552
0.0268939
0.026958
0.0269645
0.0253884
0.0251986
0.0250089
0.0248706
0.0247814
0.0247171
0.0247125
0.024741
0.0248314
0.0249573
0.0251405
0.025375
0.0261295
0.0259859
0.0258616
0.0257509
0.0256794
0.0256253
0.025612
0.0256282
0.0256905
0.0257914
0.0259205
0.0260896
0.0269466
0.0269326
0.026896
0.026848
0.0268036
0.0267709
0.026738
0.026729
0.0267425
0.0267666
0.0268328
0.0268604
0.0253278
0.0251589
0.0249897
0.0248747
0.0248103
0.0247679
0.0247801
0.0248144
0.0249031
0.0250157
0.0251792
0.0253886
0.0260636
0.0259586
0.0258617
0.0257858
0.0257506
0.0257216
0.0257211
0.0257349
0.025776
0.0258434
0.0259272
0.0260626
0.0268982
0.0269381
0.0269315
0.0269204
0.0269111
0.0268983
0.0268782
0.0268622
0.0268444
0.0268221
0.0268213
0.0268003
);
    }
}

// ************************************************************************* //
