/*--------------------------------*- C++ -*----------------------------------*\
| =========                 |                                                 |
| \\      /  F ield         | foam-extend: Open Source CFD                    |
|  \\    /   O peration     | Version:     3.0                                |
|   \\  /    A nd           | Web:         http://www.extend-project.de       |
|    \\/     M anipulation  |                                                 |
\*---------------------------------------------------------------------------*/
FoamFile
{
    version     2.0;
    format      ascii;
    class       volVectorField;
    object      U;
}
// * * * * * * * * * * * * * * * * * * * * * * * * * * * * * * * * * * * * * //

dimensions      [0 1 -1 0 0 0 0];

internalField   uniform (0 0 2.39);

boundaryField
{
    outlet
    {
        type            zeroGradient;
    }
    rod
    {
        type            newMovingWallVelocity;
        value           uniform (0 0 0);
    }
    tube
    {
        type            fixedValue;
        value           uniform (0 0 0);
    }
    inlet
    {
        type            fixedValue;        
        value           nonuniform List<vector>

720
(
(-0.060396 0.0887917 2.61829)
(-0.0683197 0.073324 2.62462)
(-0.0819084 0.074404 2.62413)
(-0.0862474 0.0572194 2.62821)
(-0.0939667 0.0601896 2.63021)
(-0.0984225 0.0385117 2.63265)
(-0.106139 0.0485309 2.63876)
(-0.096754 0.0238251 2.63512)
(-0.103319 0.0219097 2.63378)
(-0.0960232 0.000143455 2.63371)
(-0.101555 -0.01345 2.62427)
(-0.0888149 -0.0319723 2.62647)
(0.0401198 0.02346 2.57459)
(0.0408358 0.0223923 2.5851)
(0.0365405 0.0357613 2.57691)
(0.0442542 0.0299546 2.59041)
(0.0329471 0.0430406 2.58343)
(0.0471994 0.0422944 2.5998)
(0.0288093 0.0415133 2.58675)
(0.0283145 0.0379238 2.57522)
(0.0182188 0.046264 2.58881)
(0.0135639 0.041176 2.5812)
(0.00366645 0.0441801 2.58114)
(5.91765e-05 0.0405817 2.58456)
(-0.0687638 0.137945 2.51804)
(-0.0847988 0.122937 2.52832)
(-0.0995788 0.123816 2.52453)
(-0.112785 0.1065 2.53491)
(-0.12735 0.105733 2.53172)
(-0.135155 0.0851533 2.54017)
(-0.153154 0.0814353 2.53908)
(-0.15073 0.0530756 2.5398)
(-0.161824 0.0395375 2.53519)
(-0.152664 0.011545 2.53524)
(-0.15649 -0.0111624 2.52547)
(-0.13986 -0.0385247 2.52623)
(0.0475587 0.035543 2.45195)
(0.0453004 0.0345326 2.46035)
(0.0384397 0.047247 2.45195)
(0.0403043 0.0454076 2.466)
(0.0308081 0.0538181 2.45355)
(0.0359362 0.0544866 2.46973)
(0.0218016 0.0560841 2.45713)
(0.0231243 0.0522371 2.44851)
(0.0131495 0.057615 2.45517)
(0.0101002 0.0529568 2.45153)
(-0.00368257 0.0559264 2.45317)
(-0.00694785 0.0516332 2.45538)
(-0.0817954 0.197744 2.36732)
(-0.104888 0.183204 2.38224)
(-0.126638 0.180715 2.38194)
(-0.14615 0.161498 2.3967)
(-0.16768 0.154556 2.39605)
(-0.181487 0.130523 2.40681)
(-0.202562 0.117004 2.4052)
(-0.206388 0.0842154 2.40515)
(-0.218979 0.0590435 2.39737)
(-0.212591 0.0218204 2.39097)
(-0.21361 -0.0106747 2.3761)
(-0.197238 -0.0475054 2.37088)
(0.0592977 0.0699855 2.2421)
(0.0505498 0.0746552 2.25197)
(0.0374006 0.0883495 2.24201)
(0.0296919 0.0906692 2.25288)
(0.0145785 0.0960454 2.24002)
(0.00960565 0.095572 2.24569)
(-0.00559973 0.0932061 2.23666)
(-0.00693942 0.0843938 2.22647)
(-0.0177818 0.0821395 2.22737)
(-0.0186537 0.0723284 2.22264)
(-0.0313899 0.0702828 2.22569)
(-0.036331 0.0632436 2.22815)
(-0.0999156 0.242075 2.09678)
(-0.130114 0.230438 2.12343)
(-0.158145 0.220826 2.13451)
(-0.183769 0.201368 2.16296)
(-0.207517 0.185548 2.17165)
(-0.225042 0.158436 2.1895)
(-0.242138 0.136817 2.1905)
(-0.248031 0.101492 2.18391)
(-0.25433 0.0676622 2.16472)
(-0.249416 0.0248975 2.13749)
(-0.24445 -0.0166143 2.10607)
(-0.232586 -0.0591356 2.08395)
(0.081976 0.122623 1.73163)
(0.0645024 0.144962 1.74813)
(0.0431071 0.157753 1.74783)
(0.0173685 0.174941 1.76045)
(-0.0127428 0.180349 1.75223)
(-0.0416022 0.183245 1.75143)
(-0.0749015 0.173842 1.7369)
(-0.0921301 0.152297 1.70937)
(-0.100773 0.124267 1.67896)
(-0.0929406 0.0952758 1.64817)
(-0.0871164 0.0780826 1.63904)
(-0.0876165 0.0695397 1.64606)
(-0.0899696 -0.051324 2.61717)
(-0.0720705 -0.0631126 2.62152)
(-0.0705877 -0.0807991 2.61551)
(-0.0510539 -0.087866 2.62092)
(-0.0511449 -0.098652 2.61842)
(-0.0313335 -0.104064 2.62527)
(-0.0387569 -0.113083 2.62695)
(-0.0148127 -0.103309 2.62927)
(-0.0116206 -0.107846 2.62944)
(0.00489078 -0.0995686 2.63776)
(0.0156516 -0.103785 2.63043)
(0.0269337 -0.0938215 2.63832)
(-0.0124312 0.0410935 2.57692)
(-0.0124841 0.0405458 2.58579)
(-0.0290782 0.0343682 2.57665)
(-0.025861 0.0407781 2.5899)
(-0.0402253 0.0259211 2.58024)
(-0.0414207 0.0377745 2.59785)
(-0.0412937 0.0169214 2.58686)
(-0.0393837 0.016616 2.57374)
(-0.0493607 0.0072624 2.58786)
(-0.0477044 0.00511069 2.58132)
(-0.0509521 -0.00237129 2.58043)
(-0.0490708 -0.00243578 2.58401)
(-0.137507 -0.0622929 2.5163)
(-0.116528 -0.0836592 2.52135)
(-0.11184 -0.102092 2.51425)
(-0.09003 -0.115778 2.52347)
(-0.0865575 -0.130941 2.51929)
(-0.065515 -0.136863 2.52907)
(-0.0633327 -0.154448 2.52909)
(-0.0389447 -0.151424 2.53314)
(-0.0300118 -0.164143 2.53293)
(-0.00985565 -0.158477 2.53954)
(0.00636907 -0.166727 2.53477)
(0.0265059 -0.155717 2.54087)
(-0.024119 0.0506544 2.45131)
(-0.025242 0.0478874 2.45939)
(-0.0419206 0.0399496 2.45048)
(-0.0428986 0.0395218 2.46593)
(-0.0524599 0.0261289 2.45322)
(-0.0552181 0.0276323 2.47028)
(-0.0565366 0.0101741 2.46007)
(-0.0541937 0.010121 2.4507)
(-0.0598994 -0.000134221 2.4564)
(-0.0567691 -0.000809537 2.45221)
(-0.0591882 -0.0111156 2.45237)
(-0.0569018 -0.00953573 2.45411)
(-0.191826 -0.0777919 2.35834)
(-0.170391 -0.106786 2.36281)
(-0.162871 -0.131719 2.35716)
(-0.139439 -0.150554 2.36932)
(-0.130801 -0.171901 2.36941)
(-0.106253 -0.183721 2.38226)
(-0.0956751 -0.203956 2.38659)
(-0.0680578 -0.207791 2.39382)
(-0.0506849 -0.223838 2.39719)
(-0.0237208 -0.222348 2.4042)
(-0.000175866 -0.230697 2.40224)
(0.0289639 -0.219989 2.4055)
(-0.0538006 0.0594327 2.22872)
(-0.0597333 0.0530158 2.24007)
(-0.0762811 0.0423098 2.23508)
(-0.0793475 0.0355519 2.25202)
(-0.0906456 0.0165773 2.24379)
(-0.0923272 0.00974027 2.25634)
(-0.0940663 -0.012709 2.25243)
(-0.0896101 -0.02032 2.24371)
(-0.0896336 -0.0357339 2.24228)
(-0.0811964 -0.0390904 2.2333)
(-0.0772433 -0.0499103 2.22956)
(-0.0689061 -0.0487312 2.22697)
(-0.222743 -0.0941996 2.0673)
(-0.207268 -0.128555 2.06982)
(-0.195514 -0.157223 2.06977)
(-0.175181 -0.184112 2.08964)
(-0.159518 -0.209217 2.09933)
(-0.133935 -0.228874 2.12369)
(-0.113884 -0.249835 2.14107)
(-0.083891 -0.260502 2.15794)
(-0.0577595 -0.273392 2.17509)
(-0.0264009 -0.274766 2.18386)
(0.00307097 -0.275768 2.18778)
(0.0358768 -0.265026 2.18107)
(-0.0945554 0.0651412 1.66215)
(-0.110428 0.0580226 1.68763)
(-0.121867 0.0477504 1.70154)
(-0.140913 0.0304268 1.72642)
(-0.14744 0.00961182 1.7339)
(-0.159232 -0.0142298 1.74925)
(-0.159681 -0.0451577 1.75579)
(-0.157143 -0.0715611 1.75687)
(-0.151098 -0.104399 1.75916)
(-0.134321 -0.128673 1.74624)
(-0.112865 -0.148622 1.73139)
(-0.0845902 -0.153641 1.70226)
(0.0435523 -0.0950049 2.62657)
(0.0514248 -0.0801591 2.63298)
(0.0691905 -0.077242 2.62143)
(0.0773792 -0.0574336 2.62615)
(0.089803 -0.0550887 2.61796)
(0.0989073 -0.0319918 2.62201)
(0.109735 -0.0358708 2.61933)
(0.10305 -0.0106847 2.62026)
(0.107788 -0.00314281 2.61757)
(0.0995566 0.0157045 2.62641)
(0.101948 0.0282386 2.62213)
(0.0921411 0.038909 2.63317)
(-0.0484188 -0.0109796 2.57718)
(-0.0493024 -0.007531 2.5876)
(-0.0425584 -0.0217412 2.57833)
(-0.0498724 -0.016885 2.59398)
(-0.0323696 -0.0315519 2.58026)
(-0.0434092 -0.0332011 2.60074)
(-0.0183971 -0.0336006 2.58591)
(-0.0144363 -0.0324181 2.57333)
(-0.00157771 -0.0421176 2.58472)
(0.00298044 -0.0421645 2.58176)
(0.0122051 -0.0464482 2.57888)
(0.0135724 -0.0463498 2.58427)
(0.0480544 -0.155368 2.53157)
(0.0685618 -0.13586 2.53553)
(0.0898014 -0.126967 2.52321)
(0.107161 -0.100339 2.5274)
(0.125149 -0.0888583 2.51696)
(0.133283 -0.0611072 2.52248)
(0.15047 -0.0524261 2.51872)
(0.146562 -0.0246888 2.52195)
(0.156932 -0.0122475 2.51933)
(0.149776 0.00787556 2.52807)
(0.157655 0.0231738 2.52443)
(0.148752 0.0396536 2.53521)
(-0.055896 -0.0216893 2.45033)
(-0.0554605 -0.0189118 2.45937)
(-0.0480341 -0.03324 2.4501)
(-0.0495828 -0.0333178 2.4672)
(-0.0343184 -0.0442483 2.45116)
(-0.0355321 -0.0482342 2.46971)
(-0.0135382 -0.0510552 2.45819)
(-0.00988601 -0.0503443 2.4502)
(0.00445512 -0.0560869 2.45648)
(0.00819596 -0.0536757 2.45452)
(0.0213856 -0.055345 2.4544)
(0.0214242 -0.0528713 2.45683)
(0.0575573 -0.21654 2.39415)
(0.0874586 -0.193148 2.39217)
(0.117206 -0.178407 2.37414)
(0.140881 -0.146197 2.37308)
(0.166427 -0.127928 2.36005)
(0.179435 -0.095017 2.36412)
(0.199277 -0.0782343 2.36111)
(0.200585 -0.0477595 2.36734)
(0.214865 -0.0284181 2.36951)
(0.211629 -0.00247969 2.38091)
(0.220894 0.0192051 2.38227)
(0.213531 0.043582 2.39553)
(-0.0622985 -0.0568142 2.22311)
(-0.0559137 -0.0551229 2.23091)
(-0.0459032 -0.06481 2.22309)
(-0.0413909 -0.06622 2.24001)
(-0.0247107 -0.0766476 2.22941)
(-0.0203296 -0.0802082 2.24579)
(0.00132371 -0.0829493 2.2434)
(0.0110285 -0.082556 2.24128)
(0.0304775 -0.0851211 2.24715)
(0.0397028 -0.0791302 2.2455)
(0.0576951 -0.0755455 2.2453)
(0.0628577 -0.0673505 2.24476)
(0.0684391 -0.251866 2.16165)
(0.10394 -0.226496 2.13836)
(0.137335 -0.202684 2.10404)
(0.167696 -0.170414 2.0894)
(0.195823 -0.147095 2.06874)
(0.215183 -0.115566 2.07362)
(0.237658 -0.0931525 2.07636)
(0.246362 -0.0610205 2.08584)
(0.261935 -0.0347789 2.10112)
(0.264607 -0.00342591 2.11918)
(0.272051 0.0259551 2.13667)
(0.266887 0.0569324 2.15835)
(-0.0585707 -0.144156 1.67347)
(-0.0372328 -0.131033 1.65185)
(-0.02635 -0.114541 1.63997)
(-0.0166891 -0.11727 1.65469)
(-0.00861574 -0.115602 1.66365)
(0.00431925 -0.127852 1.69102)
(0.0252819 -0.131524 1.70832)
(0.0427708 -0.13246 1.71955)
(0.0679218 -0.132769 1.73656)
(0.091027 -0.125632 1.74273)
(0.117213 -0.116194 1.75263)
(0.141978 -0.0995511 1.75456)
(0.0933394 0.0533028 2.62681)
(0.0809433 0.0581413 2.63528)
(0.0807665 0.0714579 2.62993)
(0.0638149 0.0763892 2.63384)
(0.0647213 0.0843173 2.6313)
(0.0396129 0.0919796 2.63028)
(0.0464241 0.101246 2.63171)
(0.0194786 0.0961427 2.62514)
(0.0120006 0.10392 2.62003)
(-0.0127368 0.0969351 2.62111)
(-0.0276345 0.100516 2.61573)
(-0.0442636 0.0878017 2.62202)
(0.0216462 -0.046615 2.57559)
(0.0179673 -0.0493049 2.58684)
(0.0295521 -0.0449806 2.57828)
(0.0224904 -0.0540269 2.59376)
(0.0354785 -0.0406856 2.58336)
(0.0336967 -0.0534832 2.60325)
(0.0325856 -0.0302434 2.58634)
(0.0291431 -0.0259335 2.57564)
(0.0375155 -0.0118314 2.58578)
(0.0355606 -0.00477319 2.5815)
(0.0406219 0.00733447 2.57827)
(0.0392698 0.0120673 2.58376)
(0.153062 0.0569237 2.52984)
(0.140265 0.07268 2.53996)
(0.139226 0.089583 2.53319)
(0.11892 0.104806 2.54094)
(0.111559 0.120909 2.5327)
(0.0833344 0.129891 2.53624)
(0.0712508 0.146998 2.52916)
(0.0370441 0.14408 2.52622)
(0.0179031 0.15351 2.51813)
(-0.0102632 0.144124 2.52096)
(-0.0301791 0.148838 2.51455)
(-0.0510319 0.13568 2.52268)
(0.0334864 -0.0509774 2.45136)
(0.0298264 -0.0517673 2.45908)
(0.0410208 -0.0468115 2.44985)
(0.037832 -0.0513538 2.4661)
(0.04623 -0.0413104 2.45198)
(0.0469892 -0.0453044 2.47091)
(0.0479772 -0.0259678 2.45761)
(0.04567 -0.0226993 2.44938)
(0.05223 -0.00692266 2.45498)
(0.0498454 -0.00042304 2.45232)
(0.053374 0.0162416 2.45301)
(0.0498448 0.0199274 2.4566)
(0.216906 0.0669994 2.39393)
(0.20317 0.0907229 2.40625)
(0.198352 0.115033 2.4001)
(0.174499 0.136175 2.40735)
(0.15861 0.160065 2.3948)
(0.123747 0.174117 2.39362)
(0.099222 0.194362 2.37934)
(0.0578672 0.196448 2.37156)
(0.0284264 0.207981 2.36023)
(-0.0055429 0.202072 2.36198)
(-0.031405 0.207114 2.35741)
(-0.0585377 0.196762 2.36836)
(0.0761224 -0.0592039 2.23667)
(0.0759901 -0.0525286 2.24025)
(0.083224 -0.0424392 2.22661)
(0.0796397 -0.0389577 2.23848)
(0.0826127 -0.026101 2.22555)
(0.077843 -0.0247757 2.23871)
(0.0767074 -0.00590174 2.23205)
(0.0725575 -0.00125547 2.22683)
(0.075939 0.0159263 2.23194)
(0.0726176 0.0248083 2.23247)
(0.0728536 0.0438787 2.23786)
(0.0663067 0.0519187 2.24388)
(0.26434 0.0860609 2.16972)
(0.249359 0.114343 2.18755)
(0.236348 0.140639 2.18337)
(0.209548 0.163722 2.1862)
(0.184266 0.187028 2.16082)
(0.144531 0.203513 2.14353)
(0.109744 0.223563 2.10975)
(0.0659862 0.230991 2.08644)
(0.0302627 0.243726 2.06996)
(-0.00613336 0.24434 2.06876)
(-0.0376975 0.248957 2.07039)
(-0.0699703 0.244196 2.08709)
(0.161273 -0.0790092 1.75172)
(0.180208 -0.0525687 1.74718)
(0.18046 -0.0255295 1.72501)
(0.179396 0.00228047 1.71015)
(0.155661 0.0214854 1.67574)
(0.136668 0.0334003 1.661)
(0.113991 0.0408579 1.64718)
(0.104063 0.0416713 1.64691)
(0.104302 0.052818 1.66552)
(0.103078 0.0649366 1.68204)
(0.101488 0.0839595 1.70348)
(0.0936242 0.104126 1.7209)
(0.0284211 0.0204346 2.65193)
(0.03157 0.0229731 2.66649)
(0.0286112 0.0311951 2.65421)
(0.0394903 0.0252408 2.66936)
(0.0245697 0.0417532 2.66765)
(0.0587683 0.0310534 2.68011)
(0.0206195 0.0362017 2.68951)
(0.0122233 0.0329796 2.66079)
(0.0118113 0.0421618 2.67458)
(0.00299425 0.0375914 2.66606)
(0.00271087 0.0368432 2.65976)
(-0.00473377 0.0335125 2.66576)
(-0.00853595 0.0312259 2.65301)
(-0.0118389 0.0323651 2.66788)
(-0.0217364 0.0266402 2.65311)
(-0.0182983 0.037175 2.67207)
(-0.0365876 0.0203304 2.66162)
(-0.0272455 0.0515363 2.67762)
(-0.0330796 0.00706999 2.68609)
(-0.0297919 -0.00290215 2.65915)
(-0.0410573 -0.00390578 2.668)
(-0.0407925 -0.00891206 2.66633)
(-0.0439124 -0.00700277 2.65966)
(-0.0436161 -0.0101169 2.66679)
(-0.0412079 -0.00992024 2.65385)
(-0.0428352 -0.0113497 2.66888)
(-0.0372718 -0.0163249 2.65618)
(-0.0475514 -0.0119976 2.67394)
(-0.0309755 -0.0273968 2.66453)
(-0.0597204 -0.0180004 2.68448)
(-0.0137137 -0.0265487 2.68956)
(0.00135088 -0.021411 2.65462)
(0.00742473 -0.0307265 2.66505)
(0.0161082 -0.0300978 2.66224)
(0.0165185 -0.0352134 2.65689)
(0.0211692 -0.0369453 2.66599)
(0.0215581 -0.0378871 2.65324)
(0.0227784 -0.041563 2.66742)
(0.0262315 -0.0391478 2.6567)
(0.0196366 -0.0503375 2.67155)
(0.0329946 -0.0363869 2.67143)
(0.0219878 -0.0677194 2.68729)
(0.0297359 -0.0282282 2.69351)
(0.0238836 -0.0143554 2.65713)
(0.0308051 -0.00784588 2.6724)
(0.0260577 0.00519948 2.66111)
(0.0281776 0.00792168 2.65595)
(0.0273321 0.0160162 2.66383)
(-0.0257781 -0.0424411 2.73367)
(0.00994916 -0.00867462 2.73344)
(-0.025031 -0.0354397 2.74395)
(-0.00402161 -0.000330211 2.73186)
(-0.0279635 -0.0269406 2.75604)
(-0.0161456 0.0039546 2.73511)
(-0.0271057 -0.0213365 2.75669)
(-0.0263214 0.00706718 2.74662)
(-0.0202694 -0.0192334 2.7458)
(-0.0333574 0.012224 2.74923)
(-0.00502864 -0.0232584 2.72959)
(-0.042066 0.0206742 2.73217)
(0.0195825 -0.00464475 2.73169)
(0.0303361 -0.00151093 2.73475)
(0.0158387 -0.0119987 2.75355)
(0.026677 -0.00671378 2.74439)
(0.0141123 -0.0186831 2.76241)
(0.022139 -0.01193 2.74808)
(0.0106744 -0.0243295 2.75782)
(0.0148237 -0.0170566 2.7456)
(0.00584309 -0.0288617 2.7454)
(0.00655053 -0.0200284 2.73835)
(-0.000249675 -0.0355668 2.73241)
(-0.00593085 -0.0167443 2.73025)
(-0.015798 -0.0324643 2.75061)
(0.0152987 0.00601559 2.73989)
(-0.0196463 -0.028849 2.76454)
(0.00277505 0.00940507 2.75046)
(-0.0211107 -0.0230056 2.77265)
(-0.00938649 0.0105481 2.75966)
(-0.0203745 -0.0194787 2.77218)
(-0.0212265 0.0123511 2.76642)
(-0.0173768 -0.0181605 2.76392)
(-0.0280622 0.014748 2.76233)
(-0.0106638 -0.0204259 2.75113)
(-0.0325709 0.0193094 2.74132)
(0.0163196 -0.0175947 2.7465)
(0.0254633 0.00704069 2.74636)
(0.014385 -0.016873 2.76563)
(0.0190111 0.00306368 2.75929)
(0.0130272 -0.0155322 2.77568)
(0.0172725 -0.00113001 2.76769)
(0.00854954 -0.0176484 2.77231)
(0.0133182 -0.00459832 2.76297)
(0.00320802 -0.0220114 2.75796)
(0.0105121 -0.00675989 2.74855)
(-0.00477543 -0.0305326 2.74219)
(0.00257309 -0.000716784 2.72932)
(-0.00963089 -0.0231584 2.74654)
(0.0143668 0.0166564 2.74596)
(-0.0159655 -0.0201151 2.76743)
(0.00177621 0.0135189 2.76391)
(-0.0166168 -0.0175387 2.77885)
(-0.00689526 0.0141552 2.77511)
(-0.0162279 -0.0134728 2.78055)
(-0.0171273 0.0145486 2.77798)
(-0.0149187 -0.0150098 2.77456)
(-0.0214636 0.0180577 2.77109)
(-0.0168724 -0.0165023 2.76084)
(-0.0240474 0.0248213 2.75446)
(0.0198505 -0.022749 2.75497)
(0.0227711 0.0135841 2.75678)
(0.0171893 -0.0182718 2.77192)
(0.0160849 0.00931576 2.77239)
(0.0120706 -0.0159538 2.78066)
(0.0127403 0.00775538 2.77973)
(0.00802074 -0.0139114 2.77965)
(0.0145896 0.00553512 2.77466)
(-0.000142672 -0.0183897 2.76729)
(0.011906 0.00796654 2.75925)
(-0.0102695 -0.0226559 2.74798)
(0.00646704 0.0152473 2.73532)
(-0.00439001 -0.0123965 2.73313)
(0.0114011 0.024746 2.74669)
(-0.012174 -0.00778342 2.75901)
(0.00014374 0.0179875 2.7675)
(-0.0151345 -0.00653426 2.77506)
(-0.00874966 0.0128024 2.7798)
(-0.0138121 -0.00903421 2.77983)
(-0.0130224 0.0153928 2.78044)
(-0.0169944 -0.00886464 2.7723)
(-0.0185654 0.0200912 2.77223)
(-0.0232969 -0.00974978 2.75805)
(-0.0194321 0.0278711 2.75727)
(0.0279073 -0.0246186 2.75382)
(0.0191619 0.016601 2.76025)
(0.0225542 -0.0196305 2.77142)
(0.015234 0.0134156 2.77508)
(0.0168294 -0.0165599 2.77865)
(0.0153575 0.0117584 2.78064)
(0.00555498 -0.015747 2.77483)
(0.0143846 0.0165464 2.77786)
(-0.00426006 -0.0131522 2.76269)
(0.0125133 0.0220515 2.76647)
(-0.0168766 -0.0125796 2.74587)
(0.0079453 0.0287947 2.74775)
(0.00248584 -0.000905159 2.7292)
(0.00844564 0.0290647 2.74184)
(-0.00869159 0.0039652 2.74886)
(-0.00223423 0.0192947 2.75861)
(-0.0135792 0.00140718 2.76379)
(-0.00954742 0.0152263 2.7725)
(-0.0189278 -0.000864268 2.76724)
(-0.0156506 0.0146534 2.77398)
(-0.0225517 -0.00251064 2.75704)
(-0.019061 0.0193881 2.76333)
(-0.0295318 -0.00254981 2.74512)
(-0.0195025 0.0242263 2.7466)
(0.0392614 -0.0222407 2.74172)
(0.0147641 0.0186179 2.75094)
(0.0308218 -0.0182347 2.76291)
(0.0184293 0.0152568 2.76511)
(0.0207396 -0.0161499 2.76749)
(0.0182085 0.0162796 2.77214)
(0.00650379 -0.0134439 2.75868)
(0.0165969 0.0211558 2.76985)
(-0.0083913 -0.00990516 2.7469)
(0.012899 0.0301532 2.76064)
(-0.0217835 -0.0033665 2.7366)
(0.011024 0.0377205 2.7485)
(0.0120723 0.0125173 2.73039)
(0.00515688 0.0327718 2.7325)
(-0.00295529 0.0169527 2.73838)
(-0.00403306 0.026092 2.74619)
(-0.014666 0.0140234 2.74617)
(-0.0126909 0.0216894 2.75711)
(-0.0252313 0.00974644 2.74655)
(-0.0190063 0.0175024 2.75873)
(-0.0331257 0.00666341 2.73961)
(-0.0234577 0.0133535 2.74831)
(-0.0382321 0.0036799 2.72991)
(-0.0262291 0.00937365 2.72801)
(0.0474055 -0.0231901 2.731)
(0.00877695 0.022327 2.73025)
(0.0364683 -0.014802 2.74998)
(0.0211516 0.016536 2.74732)
(0.025444 -0.0105345 2.74759)
(0.0235554 0.0180024 2.75563)
(0.0114354 -0.0069003 2.73322)
(0.0213773 0.0251314 2.75223)
(-0.00399759 -0.00034819 2.72657)
(0.0164883 0.0364031 2.73895)
(-0.0196458 0.00912496 2.72692)
(0.0177317 0.0468882 2.72925)
(0.0366351 0.0240629 2.72561)
(-0.00859808 0.0317987 2.71401)
(0.00427541 0.0199526 2.72697)
(-0.0126841 0.032637 2.73109)
(-0.0212912 0.0212505 2.72162)
(-0.0218692 0.0323217 2.73651)
(-0.0406097 0.0209045 2.71661)
(-0.0308175 0.0269369 2.73444)
(-0.0526228 0.0173601 2.71514)
(-0.0340784 0.01554 2.72473)
(-0.0554461 0.0102576 2.71648)
(-0.0424277 -0.0139191 2.7002)
(0.041457 -0.0119925 2.7253)
(0.0223451 -0.000373661 2.70951)
(0.031343 -0.0132725 2.72187)
(0.0239568 0.00432505 2.71551)
(0.025458 -0.00423184 2.70686)
(0.0221921 0.0125569 2.71713)
(0.0173631 0.00998186 2.6961)
(0.0204567 0.0220796 2.71612)
(0.00609101 0.0248776 2.69343)
(0.0186252 0.0337595 2.70657)
(-0.00655067 0.0346463 2.69814)
(0.0114223 0.0412352 2.68569)
(0.0405301 0.0255278 2.70482)
(0.00787237 0.0375891 2.69386)
(0.00788943 0.0389179 2.69801)
(-0.0112868 0.0489484 2.69671)
(-0.0239496 0.0466282 2.68396)
(-0.033035 0.051985 2.69126)
(-0.048961 0.0428818 2.67779)
(-0.0489957 0.0425567 2.68633)
(-0.06376 0.0316061 2.67915)
(-0.0503294 0.0259668 2.68166)
(-0.0649437 0.0221741 2.6885)
(-0.0486642 0.00732014 2.66617)
(-0.0312257 0.0364538 2.72356)
(-0.0377333 -0.0080024 2.71123)
(-0.024643 0.0049084 2.72548)
(-0.0352274 -0.00941091 2.73209)
(-0.0214621 -0.0172054 2.7237)
(-0.0303457 -0.0161664 2.74064)
(-0.0169812 -0.0347582 2.72125)
(-0.0217326 -0.0250804 2.73759)
(-0.01062 -0.0466759 2.71811)
(-0.00838106 -0.0295334 2.72647)
(-0.00404287 -0.05182 2.71973)
(0.0179989 -0.0369154 2.70497)
(0.00574961 0.0416615 2.72217)
(-0.00517174 0.0250949 2.70622)
(0.00835783 0.0356359 2.72043)
(-0.00843348 0.0317531 2.71791)
(0.0021981 0.0344055 2.71062)
(-0.0125455 0.0311331 2.72224)
(-0.0076655 0.0247362 2.70022)
(-0.0174474 0.0263895 2.71779)
(-0.0176376 0.0102043 2.69379)
(-0.0244119 0.0198637 2.70531)
(-0.024983 -0.00564172 2.69678)
(-0.0333096 0.014482 2.68945)
(-0.0338298 0.0390894 2.69893)
(-0.0433947 0.00787933 2.6915)
(-0.0397096 0.00743729 2.69726)
(-0.0446037 -0.00685404 2.70154)
(-0.0385908 -0.0160948 2.69198)
(-0.0445834 -0.0227591 2.69922)
(-0.0355142 -0.0387582 2.68316)
(-0.0375695 -0.0397259 2.6903)
(-0.0273776 -0.0569946 2.67942)
(-0.0228836 -0.0479475 2.68048)
(-0.0159152 -0.0647568 2.68106)
(-0.00401937 -0.0461431 2.66534)
(-0.0304135 -0.0282186 2.7256)
(0.0132131 -0.0376496 2.71096)
(0.000855206 -0.0267378 2.72464)
(0.014615 -0.0390281 2.72891)
(0.0215159 -0.0256857 2.72068)
(0.018487 -0.03501 2.7395)
(0.0351253 -0.0212557 2.72122)
(0.0229376 -0.0250276 2.73997)
(0.0425973 -0.0136046 2.72302)
(0.0245349 -0.0108907 2.73158)
(0.0435997 -0.00775806 2.72755)
(0.0296195 0.0175343 2.7081)
(-0.0333848 0.00840841 2.7241)
(-0.016634 -0.00497195 2.70483)
(-0.0278065 0.00653068 2.71748)
(-0.0262727 -0.0117654 2.71354)
(-0.0313046 -0.00188331 2.70826)
(-0.0316234 -0.018792 2.72262)
(-0.0286877 -0.0138424 2.70282)
(-0.0322945 -0.0237391 2.72197)
(-0.0168606 -0.0222528 2.70015)
(-0.0267754 -0.028282 2.71068)
(-0.00383864 -0.0286137 2.70709)
(-0.022018 -0.0347008 2.69448)
(-0.0341031 -0.0362768 2.70016)
(-0.00196454 -0.0511288 2.6882)
(0.000418401 -0.0490258 2.69021)
(0.0138905 -0.0530197 2.69635)
(0.0232643 -0.0436305 2.68975)
(0.0261707 -0.0461392 2.69998)
(0.0369644 -0.0333387 2.68945)
(0.0337137 -0.0355569 2.69747)
(0.0478623 -0.0238741 2.6887)
(0.0383208 -0.020022 2.68654)
(0.0513327 -0.0139685 2.69144)
(0.0359052 -0.00433094 2.6743)
(0.0213931 -0.0304121 2.72735)
(0.032196 0.0137285 2.71341)
(0.0224832 0.00110651 2.72593)
(0.0365907 0.0174091 2.72787)
(0.0254289 0.0252447 2.71883)
(0.0366575 0.0241334 2.73547)
(0.024865 0.0409684 2.7168)
(0.0300706 0.0286554 2.7368)
(0.020317 0.048544 2.72003)
(0.0181458 0.0292542 2.72982)
(0.0141502 0.0473038 2.72464)
(-0.0130908 0.0349842 2.7039)
(-0.0144037 -0.0325138 2.72676)
(-0.000203162 -0.0137715 2.70763)
(-0.01088 -0.024159 2.71882)
(0.00831831 -0.0195669 2.71136)
(0.000104097 -0.0232605 2.70486)
(0.0183068 -0.0229743 2.71776)
(0.0151503 -0.021137 2.69902)
(0.0274039 -0.0261315 2.72035)
(0.0288924 -0.012597 2.69979)
(0.0375397 -0.0252297 2.71184)
(0.0386612 -0.00293014 2.7085)
(0.0433069 -0.0192564 2.69136)
(0.0284151 -0.0350009 2.70528)
(0.0460479 -0.00123313 2.68933)
(0.0484895 0.000330929 2.69067)
(0.0571699 0.0175351 2.69236)
(0.0513525 0.02936 2.68284)
(0.0536594 0.0350654 2.69236)
(0.0406384 0.0468507 2.68365)
(0.0403888 0.0434241 2.69285)
(0.0279992 0.0554363 2.68808)
(0.0231189 0.0416711 2.68771)
(0.0201007 0.0519556 2.69887)
(0.00784132 0.0382248 2.67587)
);
    }
}

// ************************************************************************* //
